/*--------------------------------*- C++ -*----------------------------------*\
| =========                 |                                                 |
| \\      /  F ield         | OpenFOAM: The Open Source CFD Toolbox           |
|  \\    /   O peration     | Version:  v2312                                 |
|   \\  /    A nd           | Website:  www.openfoam.com                      |
|    \\/     M anipulation  |                                                 |
\*---------------------------------------------------------------------------*/
FoamFile
{
    version  2.0;
    format   ascii;
    class    volVectorField;
    location "0";
    object   D;
}

dimensions      [0 1 0 0 0 0 0];

internalField   uniform (0 0 0);

boundaryField
{
    bottom
    {
        type     laserProcessingPressure;
        value    uniform (0 0 0);
    }

    top
    {
        type     fixedDisplacementZeroShear;
        value    uniform (0 0 0);

        //type     solidTraction;
        //traction uniform (0 0 0);
        //pressure uniform 0.;
        //value    uniform (0 0 0);
    }

    sides
    {
        type     fixedDisplacementZeroShear;
        value    uniform (0 0 0);

        //type     solidTraction;
        //traction uniform (0 0 0);
        //pressure uniform 0.;
        //value    uniform (0 0 0);
    }
}

